%BLOCK lattice_cart
8.5481720464  0.0003649529  0.0217187211
-3.2086439118  8.2975374796  0.0016698671
-1.3190324476  -2.4592843636  8.6610353932
%ENDBLOCK lattice_cart

%BLOCK positions_abs
Fe  1.7310407562 5.7113777428 1.0291222458 # 2-mol % NUM=1
H  2.2937932393 1.5804085710 -5.5410329757 # 1-mol % NUM=1
H  3.1886042817 3.0841356090 -5.2278796384 # 1-mol % NUM=1
H  1.9050250560 2.5628195506 -4.1184373470 # 1-mol % NUM=1
H  4.5085485526 0.9787060952 -4.6370030898 # 1-mol % NUM=1
H  3.2425737311 0.5452465370 -3.4905181871 # 1-mol % NUM=1
H  3.7449818920 2.9581539051 -2.4204812042 # 1-mol % NUM=1
H  5.2194916908 2.9070371017 -3.4006221554 # 1-mol % NUM=1
H  4.7320779791 0.1567646636 -0.2384713729 # 1-mol % NUM=1
H  3.6899969065 0.0349786931 -1.6601060393 # 1-mol % NUM=1
H  2.6888860141 2.3667744957 -0.8712229316 # 1-mol % NUM=1
H  3.5626220040 2.0717211742 0.6227080947 # 1-mol % NUM=1
H  1.3546008217 0.3118345954 -0.6067506533 # 1-mol % NUM=1
H  1.2921933568 1.2527621603 0.8973114455 # 1-mol % NUM=1
H  2.3278113164 -0.1923411957 0.7848860815 # 1-mol % NUM=1
H  7.0036913056 0.5497198790 -1.4469892582 # 1-mol % NUM=1
H  6.8210577237 1.2512415225 -3.0691075197 # 1-mol % NUM=1
H  5.3752030873 -0.7047317941 -3.7032728638 # 1-mol % NUM=1
H  5.3582854960 -1.2833805841 -2.0331578740 # 1-mol % NUM=1
H  7.9055113106 -0.9339060698 -3.7298145614 # 1-mol % NUM=1
H  7.0792062432 -2.4761609188 -3.4340754005 # 1-mol % NUM=1
H  7.8359580820 -1.6096152070 -2.0834312878 # 1-mol % NUM=1
H  4.9822130950 3.2621394386 -0.5655002783 # 1-mol % NUM=1
H  6.4185977178 3.2291051493 -1.6051441393 # 1-mol % NUM=1
H  7.7064387567 2.0288919286 -0.1279428878 # 1-mol % NUM=1
H  6.3698299825 1.1069268375 0.5603868331 # 1-mol % NUM=1
H  6.9586918406 4.0501387708 1.1956981941 # 1-mol % NUM=1
H  7.2792392010 2.6524039293 2.2360062150 # 1-mol % NUM=1
H  5.6069545596 3.1110156460 1.8673570089 # 1-mol % NUM=1
C  2.7309686674 2.2074244399 -4.7513399666 # 1-mol % NUM=1
C  3.7581373560 1.3993054894 -3.9516696617 # 1-mol % NUM=1
C  4.4537999573 2.2816342382 -2.9175133651 # 1-mol % NUM=1
C  4.1619831920 0.7407690744 -0.9714922158 # 1-mol % NUM=1
C  3.1072491719 1.5708699328 -0.2421776994 # 1-mol % NUM=1
C  1.9573848849 0.6828576670 0.2357224231 # 1-mol % NUM=1
C  6.3089811285 0.6634126783 -2.2892771249 # 1-mol % NUM=1
C  5.9565858180 -0.7308933316 -2.7733898550 # 1-mol % NUM=1
C  7.2714520513 -1.4787280959 -3.0180731433 # 1-mol % NUM=1
C  5.8049843094 2.6296304635 -0.9202947108 # 1-mol % NUM=1
C  6.6702148194 2.1117784953 0.2340591530 # 1-mol % NUM=1
C  6.6199394210 3.0368187859 1.4478471631 # 1-mol % NUM=1
N  5.1679269385 1.5490352096 -1.7822709290 # 1-mol % NUM=1
Cl  0.2137012577 5.8134260832 -0.6098486025 # 2-mol % NUM=1
Cl  0.9200625702 4.3488181976 2.5883275736 # 2-mol % NUM=1
Cl  3.6168684732 4.9893010398 0.0788940665 # 2-mol % NUM=1
Cl  2.1992224697 7.6270383697 2.0686354385 # 2-mol % NUM=1
%ENDBLOCK positions_abs

#MINSEP=2.0 Fe-Cl=2.22 H-C=1.09 C-C=1.52 C-N=1.52


---

      Step     Time          Energy          fmax
FIRE:    0 17:25:29     -221.496408       39.153898
FIRE:    1 17:25:32     -229.128191       17.778767
FIRE:    2 17:25:35     -232.637954        6.226292
FIRE:    3 17:25:38     -233.905220        3.399531
FIRE:    4 17:25:40     -233.476773       57.401711
FIRE:    5 17:25:43     -234.757200       15.915739
FIRE:    6 17:25:46     -233.352887       10.910429
FIRE:    7 17:25:49     -233.515203       15.653447
FIRE:    8 17:25:52     -233.999802       15.286871
FIRE:    9 17:25:55     -234.231518        8.762790
FIRE:   10 17:25:58     -234.597342       16.900027
FIRE:   11 17:26:01     -235.372858       26.575471
FIRE:   12 17:26:04     -235.946599       37.440416
FIRE:   13 17:26:07     -236.308233       26.403327
FIRE:   14 17:26:10     -236.102685       44.589205
FIRE:   15 17:26:13     -236.232471       39.173371
FIRE:   16 17:26:16     -236.407509       28.692355
FIRE:   17 17:26:19     -236.430979       27.004121
FIRE:   18 17:26:22     -236.441354       26.019744
FIRE:   19 17:26:25     -236.460437       23.952353
FIRE:   20 17:26:27     -236.485376       21.734361
FIRE:   21 17:26:31     -236.510886       14.914666
FIRE:   22 17:26:33     -236.504174       24.951053
FIRE:   23 17:26:35     -236.506236       24.660876
FIRE:   24 17:26:38     -236.510316       24.306030
FIRE:   25 17:26:40     -236.516458       24.979877
FIRE:   26 17:26:43     -236.524705       25.327103
FIRE:   27 17:26:45     -236.532711       11.562886
FIRE:   28 17:26:47     -236.533237       18.097759
FIRE:   29 17:26:49     -236.535190       17.922713
FIRE:   30 17:26:52     -236.539182       18.173640
FIRE:   31 17:26:54     -236.545565       18.324620
FIRE:   32 17:26:56     -236.554843       18.275967
FIRE:   33 17:26:58     -236.567324       15.585909
FIRE:   34 17:27:01     -236.581252       13.171995
FIRE:   35 17:27:03     -236.591452       24.375016
FIRE:   36 17:27:06     -236.610995       21.968461
FIRE:   37 17:27:08     -236.629289       15.742345
FIRE:   38 17:27:10     -236.651114       18.204369
FIRE:   39 17:27:13     -236.681756       15.026953
FIRE:   40 17:27:15     -236.711850       20.194041
FIRE:   41 17:27:18     -236.747252       17.829581
FIRE:   42 17:27:21     -236.776381       17.335350
FIRE:   43 17:27:23     -236.816851       13.593453
FIRE:   44 17:27:26     -236.862080       11.712861
FIRE:   45 17:27:29     -236.904304        8.502260
FIRE:   46 17:27:32     -236.935538       17.549810
FIRE:   47 17:27:35     -236.990287        5.331528
FIRE:   48 17:27:39     -237.033103        5.187127
FIRE:   49 17:27:42     -237.081447        8.607121
FIRE:   50 17:27:45     -237.127816        5.466459
FIRE:   51 17:27:47     -237.180020        9.177376
FIRE:   52 17:27:50     -237.247447        5.068051
FIRE:   53 17:27:53     -237.318515       10.684818
FIRE:   54 17:27:56     -237.318493       29.900348
FIRE:   55 17:27:58     -237.399278        8.633061
FIRE:   56 17:28:01     -237.388354       13.905609
FIRE:   57 17:28:04     -237.395461       13.127751
FIRE:   58 17:28:07     -237.408051       12.061619
FIRE:   59 17:28:10     -237.417505        4.791481
FIRE:   60 17:28:13     -237.419282        6.904322
FIRE:   61 17:28:16     -237.419874        6.671593
FIRE:   62 17:28:18     -237.420927        6.239538
FIRE:   63 17:28:21     -237.422441        5.296796
FIRE:   64 17:28:24     -237.424020        3.588620
FIRE:   65 17:28:27     -237.425467        3.760398
FIRE:   66 17:28:30     -237.426827        3.853645
FIRE:   67 17:28:33     -237.427880        4.713362
FIRE:   68 17:28:35     -237.429306        4.630961
FIRE:   69 17:28:38     -237.431390        3.506641
FIRE:   70 17:28:40     -237.433978        3.336872
FIRE:   71 17:28:43     -237.437005        3.296126
FIRE:   72 17:28:45     -237.440844        3.263657
FIRE:   73 17:28:48     -237.445691        3.204108
FIRE:   74 17:28:51     -237.451701        3.365705
FIRE:   75 17:28:54     -237.459225        3.066120
FIRE:   76 17:28:56     -237.467275        3.983152
FIRE:   77 17:28:58     -237.477321        3.843139
FIRE:   78 17:29:00     -237.490240        2.869555
FIRE:   79 17:29:02     -237.504717        4.003548
FIRE:   80 17:29:05     -237.522901        2.848229
FIRE:   81 17:29:07     -237.544374        2.567606
FIRE:   82 17:29:10     -237.569687        2.948825
FIRE:   83 17:29:12     -237.599957        4.017008
FIRE:   84 17:29:15     -237.634767        4.496836
FIRE:   85 17:29:17     -237.677407        3.883086
FIRE:   86 17:29:19     -237.724435        4.233968
FIRE:   87 17:29:22     -237.771397       12.445518
FIRE:   88 17:29:24     -237.808773       16.440505
FIRE:   89 17:29:26     -237.834349        8.669951
FIRE:   90 17:29:28     -237.843846        8.066927
FIRE:   91 17:29:30     -237.845689        5.835838
FIRE:   92 17:29:32     -237.847970        3.628156
FIRE:   93 17:29:34     -237.849505        3.107223
FIRE:   94 17:29:37     -237.851041        3.513935
FIRE:   95 17:29:39     -237.852927        3.514842
FIRE:   96 17:29:41     -237.855406        3.554540
FIRE:   97 17:29:44     -237.858235        4.708036
FIRE:   98 17:29:47     -237.861328        7.466075
FIRE:   99 17:29:49     -237.866373        2.829219
FIRE:  100 17:29:52     -237.871857        3.073165
FIRE:  101 17:29:54     -237.878700        2.605603
FIRE:  102 17:29:56     -237.885741        7.962019
FIRE:  103 17:29:58     -237.895765        3.685024
FIRE:  104 17:30:00     -237.907303        4.631748
FIRE:  105 17:30:02     -237.922591        4.746049
FIRE:  106 17:30:04     -237.939744        3.492490
FIRE:  107 17:30:06     -237.960209        8.796903
FIRE:  108 17:30:08     -237.978173        8.124908
FIRE:  109 17:30:11     -238.010417        4.835695
FIRE:  110 17:30:13     -238.032900       14.698420
FIRE:  111 17:30:15     -238.061897       14.389659
FIRE:  112 17:30:17     -238.080651        7.726209
FIRE:  113 17:30:19     -238.089184        9.079667
FIRE:  114 17:30:21     -238.091509        8.179404
FIRE:  115 17:30:23     -238.092847        3.749729
FIRE:  116 17:30:25     -238.092978        3.575366
FIRE:  117 17:30:27     -238.093220        3.169079
FIRE:  118 17:30:30     -238.093571        2.456304
FIRE:  119 17:30:32     -238.093944        1.907299
FIRE:  120 17:30:34     -238.094316        2.026386
FIRE:  121 17:30:36     -238.094711        3.348092
FIRE:  122 17:30:38     -238.095238        3.716150
FIRE:  123 17:30:40     -238.095962        2.912713
FIRE:  124 17:30:42     -238.096883        1.905950
FIRE:  125 17:30:44     -238.097958        2.058631
FIRE:  126 17:30:46     -238.099208        2.662778
FIRE:  127 17:30:48     -238.100875        2.474416
FIRE:  128 17:30:50     -238.102959        1.903895
FIRE:  129 17:30:52     -238.105328        3.040472
FIRE:  130 17:30:55     -238.108377        1.901900
FIRE:  131 17:30:57     -238.111952        2.460341
FIRE:  132 17:30:59     -238.116470        1.899250
FIRE:  133 17:31:01     -238.121800        3.978793
FIRE:  134 17:31:03     -238.128337        3.426468
FIRE:  135 17:31:05     -238.136453        1.889195
FIRE:  136 17:31:07     -238.145950        5.042337
FIRE:  137 17:31:09     -238.156040        4.330575
FIRE:  138 17:31:11     -238.170254        4.555325
FIRE:  139 17:31:13     -238.183217        9.014955
FIRE:  140 17:31:15     -238.205130        4.548235
FIRE:  141 17:31:17     -238.228578        4.844366
FIRE:  142 17:31:19     -238.243756        9.954267
FIRE:  143 17:31:21     -238.284182        7.282497
FIRE:  144 17:31:23     -238.320988        7.850298
FIRE:  145 17:31:25     -238.336495       12.783292
FIRE:  146 17:31:27     -238.356324       11.699896
FIRE:  147 17:31:29     -238.359856        9.594704
FIRE:  148 17:31:31     -238.362992        8.874712
FIRE:  149 17:31:33     -238.368454        7.750512
FIRE:  150 17:31:35     -238.371634        5.685157
FIRE:  151 17:31:37     -238.371920        5.523647
FIRE:  152 17:31:39     -238.372424        4.856095
FIRE:  153 17:31:41     -238.373060        2.600826
FIRE:  154 17:31:43     -238.373367        2.951976
FIRE:  155 17:31:45     -238.373477        5.356597
FIRE:  156 17:31:47     -238.373543        5.113212
FIRE:  157 17:31:49     -238.373696        4.538309
FIRE:  158 17:31:51     -238.373828        3.643219
FIRE:  159 17:31:53     -238.374025        2.484291
FIRE:  160 17:31:55     -238.374179        1.793398
FIRE:  161 17:31:57     -238.374310        1.794164
FIRE:  162 17:31:59     -238.374420        2.358204
FIRE:  163 17:32:01     -238.374552        3.014159
FIRE:  164 17:32:03     -238.374749        3.235236
FIRE:  165 17:32:05     -238.375078        3.132747
FIRE:  166 17:32:07     -238.375473        2.557947
FIRE:  167 17:32:09     -238.375956        1.793945
FIRE:  168 17:32:11     -238.376460        1.792862
FIRE:  169 17:32:13     -238.377074        2.689650
FIRE:  170 17:32:15     -238.377864        2.544915
FIRE:  171 17:32:17     -238.378895        1.793025
FIRE:  172 17:32:19     -238.380035        2.073997
FIRE:  173 17:32:21     -238.381417        2.440549
FIRE:  174 17:32:23     -238.383216        1.792594
FIRE:  175 17:32:25     -238.385300        2.488934
FIRE:  176 17:32:26     -238.387932        1.791007
FIRE:  177 17:32:28     -238.391025        2.525685
FIRE:  178 17:32:30     -238.394907        1.788096
FIRE:  179 17:32:32     -238.399579        1.786374
FIRE:  180 17:32:34     -238.405128        3.064220
FIRE:  181 17:32:36     -238.411709        4.894749
FIRE:  182 17:32:38     -238.419123        6.187533
FIRE:  183 17:32:40     -238.428884        5.869942
FIRE:  184 17:32:42     -238.438820        7.070777
FIRE:  185 17:32:44     -238.451432        7.065537
FIRE:  186 17:32:46     -238.466238        7.598162
FIRE:  187 17:32:48     -238.482777        7.477833
FIRE:  188 17:32:50     -238.503658        8.277817
FIRE:  189 17:32:52     -238.525242        7.956151
FIRE:  190 17:32:54     -238.556170        8.711808
FIRE:  191 17:32:56     -238.581394       10.550374
FIRE:  192 17:32:58     -238.612322       14.499244
FIRE:  193 17:33:00     -238.636516        6.298347
FIRE:  194 17:33:02     -238.617213       10.786122
FIRE:  195 17:33:04     -238.622061       10.453270
FIRE:  196 17:33:05     -238.630857        8.138994
FIRE:  197 17:33:07     -238.639214        5.682637
FIRE:  198 17:33:09     -238.637174        8.771921
FIRE:  199 17:33:11     -238.637963        8.319324
FIRE:  200 17:33:13     -238.639345        7.997524
