%BLOCK lattice_cart
8.5481720464  0.0003649529  0.0217187211
-3.2086439118  8.2975374796  0.0016698671
-1.3190324476  -2.4592843636  8.6610353932
%ENDBLOCK lattice_cart

%BLOCK positions_abs
Fe  1.7310407562 5.7113777428 1.0291222458 # 2-mol % NUM=1
H  2.2937932393 1.5804085710 -5.5410329757 # 1-mol % NUM=1
H  3.1886042817 3.0841356090 -5.2278796384 # 1-mol % NUM=1
H  1.9050250560 2.5628195506 -4.1184373470 # 1-mol % NUM=1
H  4.5085485526 0.9787060952 -4.6370030898 # 1-mol % NUM=1
H  3.2425737311 0.5452465370 -3.4905181871 # 1-mol % NUM=1
H  3.7449818920 2.9581539051 -2.4204812042 # 1-mol % NUM=1
H  5.2194916908 2.9070371017 -3.4006221554 # 1-mol % NUM=1
H  4.7320779791 0.1567646636 -0.2384713729 # 1-mol % NUM=1
H  3.6899969065 0.0349786931 -1.6601060393 # 1-mol % NUM=1
H  2.6888860141 2.3667744957 -0.8712229316 # 1-mol % NUM=1
H  3.5626220040 2.0717211742 0.6227080947 # 1-mol % NUM=1
H  1.3546008217 0.3118345954 -0.6067506533 # 1-mol % NUM=1
H  1.2921933568 1.2527621603 0.8973114455 # 1-mol % NUM=1
H  2.3278113164 -0.1923411957 0.7848860815 # 1-mol % NUM=1
H  7.0036913056 0.5497198790 -1.4469892582 # 1-mol % NUM=1
H  6.8210577237 1.2512415225 -3.0691075197 # 1-mol % NUM=1
H  5.3752030873 -0.7047317941 -3.7032728638 # 1-mol % NUM=1
H  5.3582854960 -1.2833805841 -2.0331578740 # 1-mol % NUM=1
H  7.9055113106 -0.9339060698 -3.7298145614 # 1-mol % NUM=1
H  7.0792062432 -2.4761609188 -3.4340754005 # 1-mol % NUM=1
H  7.8359580820 -1.6096152070 -2.0834312878 # 1-mol % NUM=1
H  4.9822130950 3.2621394386 -0.5655002783 # 1-mol % NUM=1
H  6.4185977178 3.2291051493 -1.6051441393 # 1-mol % NUM=1
H  7.7064387567 2.0288919286 -0.1279428878 # 1-mol % NUM=1
H  6.3698299825 1.1069268375 0.5603868331 # 1-mol % NUM=1
H  6.9586918406 4.0501387708 1.1956981941 # 1-mol % NUM=1
H  7.2792392010 2.6524039293 2.2360062150 # 1-mol % NUM=1
H  5.6069545596 3.1110156460 1.8673570089 # 1-mol % NUM=1
C  2.7309686674 2.2074244399 -4.7513399666 # 1-mol % NUM=1
C  3.7581373560 1.3993054894 -3.9516696617 # 1-mol % NUM=1
C  4.4537999573 2.2816342382 -2.9175133651 # 1-mol % NUM=1
C  4.1619831920 0.7407690744 -0.9714922158 # 1-mol % NUM=1
C  3.1072491719 1.5708699328 -0.2421776994 # 1-mol % NUM=1
C  1.9573848849 0.6828576670 0.2357224231 # 1-mol % NUM=1
C  6.3089811285 0.6634126783 -2.2892771249 # 1-mol % NUM=1
C  5.9565858180 -0.7308933316 -2.7733898550 # 1-mol % NUM=1
C  7.2714520513 -1.4787280959 -3.0180731433 # 1-mol % NUM=1
C  5.8049843094 2.6296304635 -0.9202947108 # 1-mol % NUM=1
C  6.6702148194 2.1117784953 0.2340591530 # 1-mol % NUM=1
C  6.6199394210 3.0368187859 1.4478471631 # 1-mol % NUM=1
N  5.1679269385 1.5490352096 -1.7822709290 # 1-mol % NUM=1
Cl  0.2137012577 5.8134260832 -0.6098486025 # 2-mol % NUM=1
Cl  0.9200625702 4.3488181976 2.5883275736 # 2-mol % NUM=1
Cl  3.6168684732 4.9893010398 0.0788940665 # 2-mol % NUM=1
Cl  2.1992224697 7.6270383697 2.0686354385 # 2-mol % NUM=1
%ENDBLOCK positions_abs

#MINSEP=2.0 Fe-Cl=2.22 H-C=1.09 C-C=1.52 C-N=1.52


---

      Step     Time          Energy          fmax
FIRE:    0 17:59:36     -243.238069        0.867897
FIRE:    1 17:59:37     -243.285732        0.528426
FIRE:    2 17:59:39     -243.316484        0.534694
FIRE:    3 17:59:41     -243.348772        0.612903
FIRE:    4 17:59:43     -243.406855        0.464334
FIRE:    5 17:59:44     -243.443748        0.406762
FIRE:    6 17:59:46     -243.471671        0.562994
FIRE:    7 17:59:48     -243.506986        0.426995
FIRE:    8 17:59:50     -243.531026        0.401947
FIRE:    9 17:59:52     -243.563401        0.468562
FIRE:   10 17:59:53     -243.596062        0.433404
FIRE:   11 17:59:55     -243.631596        0.429013
FIRE:   12 17:59:57     -243.668051        0.394483
FIRE:   13 17:59:59     -243.700711        0.501104
FIRE:   14 18:00:00     -243.713960        0.247046
FIRE:   15 18:00:02     -243.718741        0.281011
FIRE:   16 18:00:04     -243.719816        0.233428
FIRE:   17 18:00:06     -243.721527        0.176089
FIRE:   18 18:00:07     -243.723370        0.170766
FIRE:   19 18:00:09     -243.725037        0.163884
FIRE:   20 18:00:11     -243.726616        0.155632
FIRE:   21 18:00:12     -243.728524        0.153598
FIRE:   22 18:00:14     -243.730915        0.146850
FIRE:   23 18:00:16     -243.734008        0.149483
FIRE:   24 18:00:18     -243.737539        0.153252
FIRE:   25 18:00:19     -243.741005        0.158304
FIRE:   26 18:00:21     -243.744931        0.158336
FIRE:   27 18:00:23     -243.749910        0.155285
FIRE:   28 18:00:25     -243.755416        0.149399
FIRE:   29 18:00:26     -243.761207        0.138863
FIRE:   30 18:00:28     -243.768313        0.125950
FIRE:   31 18:00:30     -243.775990        0.114528
FIRE:   32 18:00:31     -243.784720        0.104868
FIRE:   33 18:00:33     -243.794306        0.105709
FIRE:   34 18:00:35     -243.805492        0.089120
