%BLOCK lattice_cart
8.3314243273  -0.0956853922  -0.0470161769
-3.3726052025  8.2954954257  0.0937700956
-1.7535142569  -4.0788592203  8.3119912540
%ENDBLOCK lattice_cart

%BLOCK positions_abs
Fe  5.0930691192 -1.6965770058 2.3378487210 # 2-mol % NUM=1
H  -3.8528886729 2.2425432882 5.1513021058 # 1-mol % NUM=1
H  -3.8153632973 1.2124279097 6.6043782713 # 1-mol % NUM=1
H  -3.5781872731 0.4927809986 4.9962869825 # 1-mol % NUM=1
H  -1.6925121455 2.4710140595 6.4025635763 # 1-mol % NUM=1
H  -1.4543499628 1.8504289911 4.7495056105 # 1-mol % NUM=1
H  -1.5346579942 -0.5404584281 5.7973637999 # 1-mol % NUM=1
H  -1.5171218674 0.2625146093 7.3857000953 # 1-mol % NUM=1
H  1.9436997254 0.4210738762 4.9942264828 # 1-mol % NUM=1
H  0.4028230146 1.0184692783 4.3416495364 # 1-mol % NUM=1
H  -0.3508412872 -1.5421099227 4.3922760567 # 1-mol % NUM=1
H  1.3653922089 -1.8735186518 4.6115713239 # 1-mol % NUM=1
H  -0.0179156812 -0.4028736281 2.2950419844 # 1-mol % NUM=1
H  0.9590210273 -1.8825749524 2.2163023475 # 1-mol % NUM=1
H  1.7489353653 -0.3216580595 2.5305256844 # 1-mol % NUM=1
H  1.9422941360 1.2424984226 7.3074827444 # 1-mol % NUM=1
H  0.3471841438 1.7201308145 7.9243594792 # 1-mol % NUM=1
H  0.0728827839 3.2732151748 6.0005203108 # 1-mol % NUM=1
H  1.4563622345 2.6005868492 5.1694523566 # 1-mol % NUM=1
H  1.5214654869 4.1433573948 7.8185222426 # 1-mol % NUM=1
H  2.2165127910 4.6340418410 6.2485382850 # 1-mol % NUM=1
H  2.9250646763 3.2949627860 7.1906145905 # 1-mol % NUM=1
H  0.2139431827 -1.7615843083 6.6552131362 # 1-mol % NUM=1
H  0.1692249497 -0.7718968981 8.1281223551 # 1-mol % NUM=1
H  2.4548184134 -0.6081838041 8.3343744555 # 1-mol % NUM=1
H  2.7667125984 -0.6085185763 6.5986988422 # 1-mol % NUM=1
H  2.0424755758 -3.1438489843 8.1732401303 # 1-mol % NUM=1
H  3.6520104077 -2.6126733358 7.6447201548 # 1-mol % NUM=1
H  2.4236672769 -3.0351476729 6.4368033289 # 1-mol % NUM=1
C  -3.3660820241 1.3753641142 5.6156962195 # 1-mol % NUM=1
C  -1.8608285778 1.6100320696 5.7413562436 # 1-mol % NUM=1
C  -1.2150722210 0.3630557147 6.3340041710 # 1-mol % NUM=1
C  0.8654687134 0.2087403148 4.9210303498 # 1-mol % NUM=1
C  0.6544117408 -1.1299848877 4.2275587353 # 1-mol % NUM=1
C  0.8506444914 -0.9203104882 2.7266633390 # 1-mol % NUM=1
C  0.9292069532 1.5422394734 7.0110895096 # 1-mol % NUM=1
C  1.0501121773 2.8037226024 6.1684775684 # 1-mol % NUM=1
C  1.9843393372 3.7786596632 6.8942754609 # 1-mol % NUM=1
C  0.6757195193 -0.9042658653 7.1632616111 # 1-mol % NUM=1
C  2.1771785483 -1.0945936099 7.3868383851 # 1-mol % NUM=1
C  2.5826669081 -2.5613626614 7.4152480653 # 1-mol % NUM=1
N  0.3113467871 0.3237506335 6.3359896414 # 1-mol % NUM=1
Cl  3.4438493450 -1.8332958859 0.8274191416 # 2-mol % NUM=1
Cl  4.3885618366 -2.0798449717 4.4186333905 # 2-mol % NUM=1
Cl  6.6561505568 -3.2328386007 1.9342564165 # 2-mol % NUM=1
Cl  5.9125154535 0.3711782568 2.1304478075 # 2-mol % NUM=1
%ENDBLOCK positions_abs

#MINSEP=2.0 Fe-Cl=2.23 H-C=1.09 C-C=1.52 C-N=1.52


---

      Step     Time          Energy          fmax
FIRE:    0 16:28:39     -223.704664       22.161994
FIRE:    1 16:28:41     -228.827579       23.630520
FIRE:    2 16:28:43     -229.042559       22.168874
FIRE:    3 16:28:46     -229.677563       25.860291
FIRE:    4 16:28:48     -230.192168       15.949967
FIRE:    5 16:28:51     -230.263236       13.138006
FIRE:    6 16:28:54     -230.364310        7.808389
FIRE:    7 16:28:56     -230.448254        5.817620
FIRE:    8 16:28:58     -230.517347       11.624247
FIRE:    9 16:29:01     -230.618948       13.890434
FIRE:   10 16:29:03     -230.777666       11.282761
FIRE:   11 16:29:06     -230.957814        6.599118
FIRE:   12 16:29:08     -231.119515        8.321995
FIRE:   13 16:29:11     -231.296900       10.553927
FIRE:   14 16:29:14     -231.550748        9.400025
FIRE:   15 16:29:16     -231.827605        5.560086
FIRE:   16 16:29:19     -232.093430        9.623718
FIRE:   17 16:29:21     -232.434687        5.275472
FIRE:   18 16:29:24     -232.743305       10.963510
FIRE:   19 16:29:27     -233.142535        3.336940
FIRE:   20 16:29:29     -233.520116        6.493849
FIRE:   21 16:29:32     -233.973546        4.572802
FIRE:   22 16:29:35     -234.442330        6.804214
FIRE:   23 16:29:37     -234.943512        3.970420
FIRE:   24 16:29:40     -235.406264        1.920047
FIRE:   25 16:29:42     -235.787574        4.083084
FIRE:   26 16:29:45     -235.974346       13.126104
FIRE:   27 16:29:48     -236.086410        1.738936
FIRE:   28 16:29:50     -236.065155        6.677218
FIRE:   29 16:29:52     -236.079544        5.518987
FIRE:   30 16:29:54     -236.101128        4.132811
FIRE:   31 16:29:56     -236.121614        2.526395
FIRE:   32 16:29:58     -236.134863        1.512382
FIRE:   33 16:30:00     -236.138943        3.369696
FIRE:   34 16:30:02     -236.140127        3.232251
FIRE:   35 16:30:04     -236.142343        2.958563
FIRE:   36 16:30:06     -236.145348        2.575012
FIRE:   37 16:30:08     -236.149011        2.463580
FIRE:   38 16:30:10     -236.153419        2.168129
FIRE:   39 16:30:12     -236.157960        1.555552
FIRE:   40 16:30:14     -236.162062        1.412447
FIRE:   41 16:30:16     -236.166427        1.393633
FIRE:   42 16:30:17     -236.172217        1.378271
FIRE:   43 16:30:19     -236.178995        1.582361
FIRE:   44 16:30:21     -236.187089        2.145902
FIRE:   45 16:30:23     -236.197639        2.212792
FIRE:   46 16:30:25     -236.211129        1.608016
FIRE:   47 16:30:27     -236.226681        1.120267
FIRE:   48 16:30:29     -236.244755        1.104452
FIRE:   49 16:30:31     -236.264803        1.771128
FIRE:   50 16:30:33     -236.287593        2.015457
FIRE:   51 16:30:35     -236.315494        0.845253
FIRE:   52 16:30:37     -236.345566        1.458698
FIRE:   53 16:30:39     -236.380178        1.624109
FIRE:   54 16:30:40     -236.419792        1.235733
FIRE:   55 16:30:42     -236.463793        1.710794
FIRE:   56 16:30:44     -236.513628        1.737456
FIRE:   57 16:30:46     -236.570548        0.695164
FIRE:   58 16:30:48     -236.634443        1.020864
FIRE:   59 16:30:50     -236.707354        0.888636
FIRE:   60 16:30:52     -236.788511        1.928924
FIRE:   61 16:30:54     -236.870941        3.589990
FIRE:   62 16:30:56     -236.949598        4.254460
FIRE:   63 16:30:58     -237.043829        5.408399
FIRE:   64 16:31:00     -237.068067        0.551806
FIRE:   65 16:31:02     -237.057297        4.164652
FIRE:   66 16:31:04     -237.064601        3.588316
FIRE:   67 16:31:06     -237.073506        1.398431
FIRE:   68 16:31:07     -237.077564        0.532517
FIRE:   69 16:31:09     -237.077411        2.023956
FIRE:   70 16:31:11     -237.077893        1.921550
FIRE:   71 16:31:13     -237.078815        1.720862
FIRE:   72 16:31:15     -237.079977        1.385164
FIRE:   73 16:31:17     -237.081205        0.943398
FIRE:   74 16:31:19     -237.082346        0.669058
FIRE:   75 16:31:21     -237.083530        0.484088
FIRE:   76 16:31:23     -237.084649        0.426619
FIRE:   77 16:31:24     -237.085855        0.689147
FIRE:   78 16:31:26     -237.087303        0.921955
FIRE:   79 16:31:28     -237.089233        1.042661
FIRE:   80 16:31:30     -237.091909        1.015731
FIRE:   81 16:31:32     -237.095419        0.815043
FIRE:   82 16:31:34     -237.099608        0.400664
FIRE:   83 16:31:36     -237.104302        0.503287
FIRE:   84 16:31:38     -237.109852        0.659073
FIRE:   85 16:31:39     -237.116695        0.760616
FIRE:   86 16:31:41     -237.125294        0.610330
FIRE:   87 16:31:43     -237.135647        0.374583
FIRE:   88 16:31:45     -237.147579        0.722405
FIRE:   89 16:31:47     -237.162034        0.719320
FIRE:   90 16:31:49     -237.179384        0.407566
FIRE:   91 16:31:51     -237.199564        0.627107
FIRE:   92 16:31:53     -237.223845        0.340350
FIRE:   93 16:31:54     -237.252031        0.757668
FIRE:   94 16:31:56     -237.285416        0.338877
FIRE:   95 16:31:58     -237.324306        0.735467
FIRE:   96 16:32:00     -237.367736        1.833978
FIRE:   97 16:32:02     -237.409302        3.699370
FIRE:   98 16:32:04     -237.441458        5.508735
FIRE:   99 16:32:06     -237.475434        1.884651
FIRE:  100 16:32:07     -237.463458        5.403759
FIRE:  101 16:32:09     -237.472802        3.485722
FIRE:  102 16:32:11     -237.482475        1.641996
FIRE:  103 16:32:13     -237.484120        1.314792
FIRE:  104 16:32:15     -237.484340        1.230857
FIRE:  105 16:32:17     -237.484735        1.085233
FIRE:  106 16:32:19     -237.485283        0.915138
FIRE:  107 16:32:20     -237.485875        0.756728
FIRE:  108 16:32:22     -237.486555        0.552353
FIRE:  109 16:32:24     -237.487191        0.302879
FIRE:  110 16:32:26     -237.487761        0.451090
FIRE:  111 16:32:28     -237.488420        0.716872
FIRE:  112 16:32:30     -237.489275        0.868483
FIRE:  113 16:32:32     -237.490503        0.871829
FIRE:  114 16:32:33     -237.492192        0.699528
FIRE:  115 16:32:35     -237.494210        0.344329
FIRE:  116 16:32:37     -237.496469        0.437324
FIRE:  117 16:32:39     -237.499124        0.653584
FIRE:  118 16:32:41     -237.502545        0.654421
FIRE:  119 16:32:43     -237.506888        0.392952
FIRE:  120 16:32:44     -237.511911        0.486598
FIRE:  121 16:32:46     -237.517987        0.646304
FIRE:  122 16:32:48     -237.525599        0.267618
FIRE:  123 16:32:50     -237.534460        0.570619
FIRE:  124 16:32:52     -237.545405        0.361824
FIRE:  125 16:32:54     -237.558347        0.652535
FIRE:  126 16:32:56     -237.574183        0.235984
FIRE:  127 16:32:57     -237.592981        0.474643
FIRE:  128 16:32:59     -237.615398        0.685967
FIRE:  129 16:33:01     -237.641939        0.853962
FIRE:  130 16:33:03     -237.672626        1.227471
FIRE:  131 16:33:05     -237.703948        2.102792
FIRE:  132 16:33:06     -237.736894        3.531224
FIRE:  133 16:33:08     -237.736477        7.001334
FIRE:  134 16:33:10     -237.794450        0.428788
FIRE:  135 16:33:12     -237.734656        8.840342
FIRE:  136 16:33:14     -237.772186        7.265028
FIRE:  137 16:33:15     -237.798157        0.629282
FIRE:  138 16:33:17     -237.785128        4.237318
FIRE:  139 16:33:19     -237.787409        4.086637
FIRE:  140 16:33:21     -237.791554        3.151263
FIRE:  141 16:33:23     -237.795305        1.976812
FIRE:  142 16:33:24     -237.798288        1.755208
FIRE:  143 16:33:26     -237.800504        0.503485
FIRE:  144 16:33:28     -237.800899        0.776592
FIRE:  145 16:33:30     -237.800920        0.764333
FIRE:  146 16:33:31     -237.800986        0.739753
FIRE:  147 16:33:33     -237.801052        0.703276
FIRE:  148 16:33:35     -237.801184        0.655966
FIRE:  149 16:33:37     -237.801293        0.598352
FIRE:  150 16:33:38     -237.801425        0.532171
FIRE:  151 16:33:40     -237.801600        0.460010
FIRE:  152 16:33:42     -237.801776        0.376120
FIRE:  153 16:33:44     -237.801973        0.284288
FIRE:  154 16:33:46     -237.802237        0.221200
FIRE:  155 16:33:47     -237.802544        0.234786
FIRE:  156 16:33:49     -237.802917        0.297565
FIRE:  157 16:33:51     -237.803355        0.345043
FIRE:  158 16:33:53     -237.803926        0.373108
FIRE:  159 16:33:54     -237.804627        0.383440
FIRE:  160 16:33:56     -237.805505        0.371533
FIRE:  161 16:33:58     -237.806602        0.331833
FIRE:  162 16:34:00     -237.807940        0.259370
FIRE:  163 16:34:01     -237.809497        0.220641
FIRE:  164 16:34:03     -237.811405        0.308699
FIRE:  165 16:34:05     -237.813752        0.364718
FIRE:  166 16:34:06     -237.816604        0.303219
FIRE:  167 16:34:08     -237.820047        0.219852
FIRE:  168 16:34:10     -237.824215        0.250320
FIRE:  169 16:34:12     -237.829238        0.268660
FIRE:  170 16:34:13     -237.835292        0.218646
FIRE:  171 16:34:15     -237.842596        0.218291
FIRE:  172 16:34:17     -237.851282        0.230514
FIRE:  173 16:34:19     -237.861701        0.217149
FIRE:  174 16:34:20     -237.874116        0.216355
FIRE:  175 16:34:22     -237.888790        0.219155
FIRE:  176 16:34:24     -237.906053        0.231926
FIRE:  177 16:34:26     -237.926386        0.210332
FIRE:  178 16:34:27     -237.949987        0.435998
FIRE:  179 16:34:29     -237.976046        1.154444
FIRE:  180 16:34:31     -237.996203        3.585833
FIRE:  181 16:34:32     -238.007390        0.387102
FIRE:  182 16:34:34     -238.007609        0.333050
FIRE:  183 16:34:36     -238.007938        0.205495
FIRE:  184 16:34:38     -238.008399        0.196356
FIRE:  185 16:34:39     -238.008969        0.277609
FIRE:  186 16:34:41     -238.009693        0.328503
FIRE:  187 16:34:43     -238.010614        0.274490
FIRE:  188 16:34:45     -238.011689        0.194834
FIRE:  189 16:34:46     -238.012983        0.194116
FIRE:  190 16:34:48     -238.014585        0.267078
FIRE:  191 16:34:50     -238.016646        0.219559
FIRE:  192 16:34:52     -238.019213        0.191431
FIRE:  193 16:34:53     -238.022327        0.264315
FIRE:  194 16:34:55     -238.026210        0.188402
FIRE:  195 16:34:57     -238.030970        0.237150
FIRE:  196 16:34:59     -238.036738        0.184195
FIRE:  197 16:35:00     -238.043714        0.276428
FIRE:  198 16:35:02     -238.052158        0.224596
FIRE:  199 16:35:04     -238.062292        0.175194
FIRE:  200 16:35:05     -238.074356        0.211399
